<?xml version="1.0" encoding="UTF-8" standalone="no" ?>
<VTKFile byte_order="LittleEndian" type="UnstructuredGrid" version="0.1">

  <UnstructuredGrid>
    <Piece NumberOfCells="0" NumberOfPoints="4165">
      <PointData>
        <DataArray Name="mass" NumberOfComponents="1" format="ascii" type="Float32">1 1 1 1 1 1 1 1 1 1 1 1 1 1 1 1 1 1 1 1 1 1 1 1 1 1 1 1 1 1 1 1 1 1 1 1 1 1 1 1 1 1 1 1 1 1 1 1 1 1 1 1 1 1 1 1 1 1 1 1 1 1 1 1 1 1 1 1 1 1 1 1 1 1 1 1 1 1 1 1 1 1 1 1 1 1 1 1 1 1 1 1 1 1 1 1 1 1 1 1 1 1 1 1 1 1 1 1 1 1 1 1 1 1 1 1 1 1 1 1 1 1 1 1 1 1 1 1 1 1 1 1 1 1 1 1 1 1 1 1 1 1 1 1 1 1 1 1 1 1 1 1 1 1 1 1 1 1 1 1 1 1 1 1 1 1 1 1 1 1 1 1 1 1 1 1 1 1 1 1 1 1 1 1 1 1 1 1 1 1 1 1 1 1 1 1 1 1 1 1 1 1 1 1 1 1 1 1 1 1 1 1 1 1 1 1 1 1 1 1 1 1 1 1 1 1 1 1 1 1 1 1 1 1 1 1 1 1 1 1 1 1 1 1 1 1 1 1 1 1 1 1 1 1 1 1 1 1 1 1 1 1 1 1 1 1 1 1 1 1 1 1 1 1 1 1 1 1 1 1 1 1 1 1 1 1 1 1 1 1 1 1 1 1 1 1 1 1 1 1 1 1 1 1 1 1 1 1 1 1 1 1 1 1 1 1 1 1 1 1 1 1 1 1 1 1 1 1 1 1 1 1 1 1 1 1 1 1 1 1 1 1 1 1 1 1 1 1 1 1 1 1 1 1 1 1 1 1 1 1 1 1 1 1 1 1 1 1 1 1 1 1 1 1 1 1 1 1 1 1 1 1 1 1 1 1 1 1 1 1 1 1 1 1 1 1 1 1 1 1 1 1 1 1 1 1 1 1 1 1 1 1 1 1 1 1 1 1 1 1 1 1 1 1 1 1 1 1 1 1 1 1 1 1 1 1 1 1 1 1 1 1 1 1 1 1 1 1 1 1 1 1 1 1 1 1 1 1 1 1 1 1 1 1 1 1 1 1 1 1 1 1 1 1 1 1 1 1 1 1 1 1 1 1 1 1 1 1 1 1 1 1 1 1 1 1 1 1 1 1 1 1 1 1 1 1 1 1 1 1 1 1 1 1 1 1 1 1 1 1 1 1 1 1 1 1 1 1 1 1 1 1 1 1 1 1 1 1 1 1 1 1 1 1 1 1 1 1 1 1 1 1 1 1 1 1 1 1 1 1 1 1 1 1 1 1 1 1 1 1 1 1 1 1 1 1 1 1 1 1 1 1 1 1 1 1 1 1 1 1 1 1 1 1 1 1 1 1 1 1 1 1 1 1 1 1 1 1 1 1 1 1 1 1 1 1 1 1 1 1 1 1 1 1 1 1 1 1 1 1 1 1 1 1 1 1 1 1 1 1 1 1 1 1 1 1 1 1 1 1 1 1 1 1 1 1 1 1 1 1 1 1 1 1 1 1 1 1 1 1 1 1 1 1 1 1 1 1 1 1 1 1 1 1 1 1 1 1 1 1 1 1 1 1 1 1 1 1 1 1 1 1 1 1 1 1 1 1 1 1 1 1 1 1 1 1 1 1 1 1 1 1 1 1 1 1 1 1 1 1 1 1 1 1 1 1 1 1 1 1 1 1 1 1 1 1 1 1 1 1 1 1 1 1 1 1 1 1 1 1 1 1 1 1 1 1 1 1 1 1 1 1 1 1 1 1 1 1 1 1 1 1 1 1 1 1 1 1 1 1 1 1 1 1 1 1 1 1 1 1 1 1 1 1 1 1 1 1 1 1 1 1 1 1 1 1 1 1 1 1 1 1 1 1 1 1 1 1 1 1 1 1 1 1 1 1 1 1 1 1 1 1 1 1 1 1 1 1 1 1 1 1 1 1 1 1 1 1 1 1 1 1 1 1 1 1 1 1 1 1 1 1 1 1 1 1 1 1 1 1 1 1 1 1 1 1 1 1 1 1 1 1 1 1 1 1 1 1 1 1 1 1 1 1 1 1 1 1 1 1 1 1 1 1 1 1 1 1 1 1 1 1 1 1 1 1 1 1 1 1 1 1 1 1 1 1 1 1 1 1 1 1 1 1 1 1 1 1 1 1 1 1 1 1 1 1 1 1 1 1 1 1 1 1 1 1 1 1 1 1 1 1 1 1 1 1 1 1 1 1 1 1 1 1 1 1 1 1 1 1 1 1 1 1 1 1 1 1 1 1 1 1 1 1 1 1 1 1 1 1 1 1 1 1 1 1 1 1 1 1 1 1 1 1 1 1 1 1 1 1 1 1 1 1 1 1 1 1 1 1 1 1 1 1 1 1 1 1 1 1 1 1 1 1 1 1 1 1 1 1 1 1 1 1 1 1 1 1 1 1 1 1 1 1 1 1 1 1 1 1 1 1 1 1 1 1 1 1 1 1 1 1 1 1 1 1 1 1 1 1 1 1 1 1 1 1 1 1 1 1 1 1 1 1 1 1 1 1 1 1 1 1 1 1 1 1 1 1 1 1 1 1 1 1 1 1 1 1 1 1 1 1 1 1 1 1 1 1 1 1 1 1 1 1 1 1 1 1 1 1 1 1 1 1 1 1 1 1 1 1 1 1 1 1 1 1 1 1 1 1 1 1 1 1 1 1 1 1 1 1 1 1 1 1 1 1 1 1 1 1 1 1 1 1 1 1 1 1 1 1 1 1 1 1 1 1 1 1 1 1 1 1 1 1 1 1 1 1 1 1 1 1 1 1 1 1 1 1 1 1 1 1 1 1 1 1 1 1 1 1 1 1 1 1 1 1 1 1 1 1 1 1 1 1 1 1 1 1 1 1 1 1 1 1 1 1 1 1 1 1 1 1 1 1 1 1 1 1 1 1 1 1 1 1 1 1 1 1 1 1 1 1 1 1 1 1 1 1 1 1 1 1 1 1 1 1 1 1 1 1 1 1 1 1 1 1 1 1 1 1 1 1 1 1 1 1 1 1 1 1 1 1 1 1 1 1 1 1 1 1 1 1 1 1 1 1 1 1 1 1 1 1 1 1 1 1 1 1 1 1 1 1 1 1 1 1 1 1 1 1 1 1 1 1 1 1 1 1 1 1 1 1 1 1 1 1 1 1 1 1 1 1 1 1 1 1 1 1 1 1 1 1 1 1 1 1 1 1 1 1 1 1 1 1 1 1 1 1 1 1 1 1 1 1 1 1 1 1 1 1 1 1 1 1 1 1 1 1 1 1 1 1 1 1 1 1 1 1 1 1 1 1 1 1 1 1 1 1 1 1 1 1 1 1 1 1 1 1 1 1 1 1 1 1 1 1 1 1 1 1 1 1 1 1 1 1 1 1 1 1 1 1 1 1 1 1 1 1 1 1 1 1 1 1 1 1 1 1 1 1 1 1 1 1 1 1 1 1 1 1 1 1 1 1 1 1 1 1 1 1 1 1 1 1 1 1 1 1 1 1 1 1 1 1 1 1 1 1 1 1 1 1 1 1 1 1 1 1 1 1 1 1 1 1 1 1 1 1 1 1 1 1 1 1 1 1 1 1 1 1 1 1 1 1 1 1 1 1 1 1 1 1 1 1 1 1 1 1 1 1 1 1 1 1 1 1 1 1 1 1 1 1 1 1 1 1 1 1 1 1 1 1 1 1 1 1 1 1 1 1 1 1 1 1 1 1 1 1 1 1 1 1 1 1 1 1 1 1 1 1 1 1 1 1 1 1 1 1 1 1 1 1 1 1 1 1 1 1 1 1 1 1 1 1 1 1 1 1 1 1 1 1 1 1 1 1 1 1 1 1 1 1 1 1 1 1 1 1 1 1 1 1 1 1 1 1 1 1 1 1 1 1 1 1 1 1 1 1 1 1 1 1 1 1 1 1 1 1 1 1 1 1 1 1 1 1 1 1 1 1 1 1 1 1 1 1 1 1 1 1 1 1 1 1 1 1 1 1 1 1 1 1 1 1 1 1 1 1 1 1 1 1 1 1 1 1 1 1 1 1 1 1 1 1 1 1 1 1 1 1 1 1 1 1 1 1 1 1 1 1 1 1 1 1 1 1 1 1 1 1 1 1 1 1 1 1 1 1 1 1 1 1 1 1 1 1 1 1 1 1 1 1 1 1 1 1 1 1 1 1 1 1 1 1 1 1 1 1 1 1 1 1 1 1 1 1 1 1 1 1 1 1 1 1 1 1 1 1 1 1 1 1 1 1 1 1 1 1 1 1 1 1 1 1 1 1 1 1 1 1 1 1 1 1 1 1 1 1 1 1 1 1 1 1 1 1 1 1 1 1 1 1 1 1 1 1 1 1 1 1 1 1 1 1 1 1 1 1 1 1 1 1 1 1 1 1 1 1 1 1 1 1 1 1 1 1 1 1 1 1 1 1 1 1 1 1 1 1 1 1 1 1 1 1 1 1 1 1 1 1 1 1 1 1 1 1 1 1 1 1 1 1 1 1 1 1 1 1 1 1 1 1 1 1 1 1 1 1 1 1 1 1 1 1 1 1 1 1 1 1 1 1 1 1 1 1 1 1 1 1 1 1 1 1 1 1 1 1 1 1 1 1 1 1 1 1 1 1 1 1 1 1 1 1 1 1 1 1 1 1 1 1 1 1 1 1 1 1 1 1 1 1 1 1 1 1 1 1 1 1 1 1 1 1 1 1 1 1 1 1 1 1 1 1 1 1 1 1 1 1 1 1 1 1 1 1 1 1 1 1 1 1 1 1 1 1 1 1 1 1 1 1 1 1 1 1 1 1 1 1 1 1 1 1 1 1 1 1 1 1 1 1 1 1 1 1 1 1 1 1 1 1 1 1 1 1 1 1 1 1 1 1 1 1 1 1 1 1 1 1 1 1 1 1 1 1 1 1 1 1 1 1 1 1 1 1 1 1 1 1 1 1 1 1 1 1 1 1 1 1 1 1 1 1 1 1 1 1 1 1 1 1 1 1 1 1 1 1 1 1 1 1 1 1 1 1 1 1 1 1 1 1 1 1 1 1 1 1 1 1 1 1 1 1 1 1 1 1 1 1 1 1 1 1 1 1 1 1 1 1 1 1 1 1 1 1 1 1 1 1 1 1 1 1 1 1 1 1 1 1 1 1 1 1 1 1 1 1 1 1 1 1 1 1 1 1 1 1 1 1 1 1 1 1 1 1 1 1 1 1 1 1 1 1 1 1 1 1 1 1 1 1 1 1 1 1 1 1 1 1 1 1 1 1 1 1 1 1 1 1 1 1 1 1 1 1 1 1 1 1 1 1 1 1 1 1 1 1 1 1 1 1 1 1 1 1 1 1 1 1 1 1 1 1 1 1 1 1 1 1 1 1 1 1 1 1 1 1 1 1 1 1 1 1 1 1 1 1 1 1 1 1 1 1 1 1 1 1 1 1 1 1 1 1 1 1 1 1 1 1 1 1 1 1 1 1 1 1 1 1 1 1 1 1 1 1 1 1 1 1 1 1 1 1 1 1 1 1 1 1 1 1 1 1 1 1 1 1 1 1 1 1 1 1 1 1 1 1 1 1 1 1 1 1 1 1 1 1 1 1 1 1 1 1 1 1 1 1 1 1 1 1 1 1 1 1 1 1 1 1 1 1 1 1 1 1 1 1 1 1 1 1 1 1 1 1 1 1 1 1 1 1 1 1 1 1 1 1 1 1 1 1 1 1 1 1 1 1 1 1 1 1 1 1 1 1 1 1 1 1 1 1 1 1 1 1 1 1 1 1 1 1 1 1 1 1 1 1 1 1 1 1 1 1 1 1 1 1 1 1 1 1 1 1 1 1 1 1 1 1 1 1 1 1 1 1 1 1 1 1 1 1 1 1 1 1 1 1 1 1 1 1 1 1 1 1 1 1 1 1 1 1 1 1 1 1 1 1 1 1 1 1 1 1 1 1 1 1 1 1 1 1 1 1 1 1 1 1 1 1 1 1 1 1 1 1 1 1 1 1 1 1 1 1 1 1 1 1 1 1 1 1 1 1 1 1 1 1 1 1 1 1 1 1 1 1 1 1 1 1 1 1 1 1 1 1 1 1 1 1 1 1 1 1 1 1 1 1 1 1 1 1 1 1 1 1 1 1 1 1 1 1 1 1 1 1 1 1 1 1 1 1 1 1 1 1 1 1 1 1 1 1 1 1 1 1 1 1 1 1 1 1 1 1 1 1 1 1 1 1 1 1 1 1 1 1 1 1 1 1 1 1 1 1 1 1 1 1 1 1 1 1 1 1 1 1 1 1 1 1 1 1 1 1 1 1 1 1 1 1 1 1 1 1 1 1 1 1 1 1 1 1 1 1 1 1 1 1 1 1 1 1 1 1 1 1 1 1 1 1 1 1 1 1 1 1 1 1 1 1 1 1 1 1 1 1 1 1 1 1 1 1 1 1 1 1 1 1 1 1 1 1 1 1 1 1 1 1 1 1 1 1 1 1 1 1 1 1 1 1 1 1 1 1 1 1 1 1 1 1 1 1 1 1 1 1 1 1 1 1 1 1 1 1 1 1 1 1 1 1 1 1 1 1 1 1 1 1 1 1 1 1 1 1 1 1 1 1 1 1 1 1 1 1 1 1 1 1 1 1 1 1 1 1 1 1 1 1 1 1 1 1 1 1 1 1 1 1 1 1 1 1 1 1 1 1 1 1 1 1 1 1 1 1 1 1 1 1 1 1 1 1 1 1 1 1 1 1 1 1 1 1 1 1 1 1 1 1 1 1 1 1 1 1 1 1 1 1 1 1 1 1 1 1 1 1 1 1 1 1 1 1 1 1 1 1 1 1 1 1 1 1 1 1 1 1 1 1 1 1 1 1 1 1 1 1 1 1 1 1 1 1 1 1 1 1 1 1 1 1 1 1 1 1 1 1 1 1 1 1 1 1 1 1 1 1 1 1 1 1 1 1 1 1 1 1 1 1 1 1 1 1 1 1 1 1 1 1 1 1 1 1 1 1 1 1 1 1 1 1 1 1 1 1 1 1 1 1 1 1 1 1 1 1 1 1 1 1 1 1 1 1 1 1 1 1 1 1 1 1 1 1 1 1 1 1 1 1 1 1 1 1 1 1 1 1 1 1 1 1 1 1 1 1 1 1 1 1 1 1 1 1 1 1 1 1 1 1 1 1 1 1 1 1 1 1 1 1 1 1 1 1 1 1 1 1 1 1 1 1 1 1 1 1 1 1 1 1 1 1 1 1 1 1 1 1 1 1 1 1 1 1 1 1 1 1 1 1 1 1 1 1 1 1 1 1 1 1 1 1 1 1 1 1 1 1 1 1 1 1 1 1 1 1 1 1 1 1 1 1 1 1 1 1 1 1 1 1 1 1 1 1 1 1 1 1 1 1 1 1 1 1 1 1 1 1 1 1 1 1 1 1 1 1 1 1 1 1 1 1 1 1 1 1 1 1 1 1 1 1 1 1 1 1 1 1 1 1 1 1 1 1 1 1 1 1 1 1 1 1 1 1 1 1 1 1 1 1 1 1 1 1 1 1 1 1 1 1 1 1 1 1 1 1 1 1 1 1 1 1 1 1 1 1 1 1 1 1 1 1 1 1 1 1 1 1 1 1 1 1 1 1 1 1 1 1 1 1 1 1 1 1 1 1 1 1 1 1 1 1 1 1 1 1 1 1 1 1 1 1 1 1 1 1 1 1 1 1 1 1 1 1 1 1 1 1 1 1 1 1 1 1 1 1 1 1 1 1 1 1 1 1 1 1 1 1 1 1 1 1 1 1 1 1 1 1 1 1 1 1 1 1 1 1 1 1 1 1 1 1 1 1 1 1 1 1 1 1 1 1 1 1 1 1 1 1 1 1 1 1 1 1 1 1 1 1 1 1 1 1 1 1 1 1 1 1 1 1 1 1 1 1 1 1 1 1 1 1 1 1 1 1 1 1 1 1 1 1 1 1 1 1 1 1 1 1 1 1 1 1 1 1 1 1 1 1 1 1 1 1 1 1 1 1 1 1 1 1 1 1 1 1 1 1 1 1 1 1 1 1 1 1 1 1 1 1 1 1 1 1 1 1 1 1 1 1 1 1 1 1 1 1 1 1 1 1 1 1 1 1 1 1 1 1 1 1 1 1 1 1 1 1 1 1 1 1 1 1 1 1 1 1 1 1 1 1 1 1 1 1 1 1 1 1 1 1 1 1 1 1 1 1 1 1 1 1 1 1 1 1 1 1 1 1 1 1 1 1 1 1 1 1 1 1 1 1 1 1 1 1 1 1 1 1 1 1 1 1 1 1 1 1 1 1 1 1 1 1 1 1 1 1 1 1 1 1 1 1 1 1 1 1 1 1 1 1 1 1 1 1 1 1 1 1 1 1 1 1 1 1 1 1 1 1 1 1 1 1 1 1 1 1 1 1 1 1 1 1 1 1 1 1 1 1 1 1 1 1 1 1 1 1 1 1 1 1 1 1 1 1 1 1 1 1 1 1 1 1 1 1 1 1 1 1 1 1 1 1 1 1 1 1 1 1 1 1 1 1 1 1 1 1 1 1 1 1 1 1 1 1 1 1 1 1 1 1 1 1 1 1 1 1 1 1 1 1 1 1 1 1 1 1 1 1 1 1 1 1 1 1 1 1 1 1 1 1 1 1 1 1 1 1 1 1 1 1 1 1 1 1 1 1 1 1 1 1 1 1 1 1 1 1 1 1 1 1 1 1 1 1 1 1 1 1 1 1 1 1 1 1 1 1 1 1 1 1 1 1 1 1 1 1 1 1 1 1 1 1 1 1 1 1 1 1 1 1 1 1 1 1 1 1 1 1 1 1 1 1 1 1 1 1 1 1 1 1 1 1 1 1 1 1 1 1 1 1 1 1 1 1 1 1 1 1 1 1 1 1 1 1 1 1 1 1 1 1 1 1 1 1 1 1 1 1 1 1 1 1 1 1 1 1 1 1 1 1 1 1 1 1 1 1 1 1 1 1 1 1 1 1 1 1 1 1 1 1 1 1 1 1 1 1 1 1 1 1 1 1 1 1 1 1 1 1 1 1 1 1 1 1 1 1 1 1 1 1 1 1 1 1 1 1 1 1 1 1 1 1 1 1 1 1 1 1 1 1 1 1 1 1 1 1 1 1 1 1 1 1 1 1 1 1 1 1 1 1 1 1 1 1 1 1 1 1 1 1 1 1 1 1 1 1 1 1 1 1 1 1 1 1 1 1 1 1 1 1 1 1 1 1 1 1 1 1 1 1 1 1 1 1 1 1 1 1 1 1 1 1 1 1 1 1 1 1 1 1 1 1 1 1 1 1 1 1 1 1 1 1 1 1 1 1 1 1 1 1 1 1 1 1 1 1 1 1 1 1 1 1 1 1 1 1 1 1 1</DataArray>
        <DataArray Name="velocity" NumberOfComponents="3" format="ascii" type="Float32">33.304633526628109 -5.387768141314065 0 3.634239446523782 -31.170452558624092 0 -6.280483739753328 2.480060915666863 0 3.929879432662525 9.527746329407419 0 -49.280093435723956 8.213370639481175 0 -13.81791291148982 0.919058055782933 0 -3.561058924502953 -13.230766595505244 0 -15.904878545870247 36.001119496613839 0 3.022514903459906 14.62182300024487 0 25.039342111749065 1.947843331475981 0 -14.389106971077416 5.427857452985796 0 -14.598424194244057 34.964799315217562 0 5.701338825908327 3.64319759606816 0 24.667319459523647 -17.94716792279824 0 14.161868596408526 27.377041758630043 0 17.225654235212236 19.600342033239819 0 4.348264333522816 -12.263016209563435 0 6.122397056637054 17.892922386822644 0 -34.701854035461288 -9.708486086346916 0 32.785418698913702 -2.739541172614749 0 -19.179291751494446 -16.463411414399392 0 -9.190489262286841 -21.77824663393919 0 -0.673582825348149 19.866650552679506 0 19.126111847316508 0.213776659523321 0 3.751881716697586 -41.674964715718296 0 6.83363431394811 -0.084581939743811 0 -5.010493913594217 -8.768792701896704 0 0.306926099577474 -50.290018904358384 0 -4.902926645808459 9.10161916862741 0 41.156595831859782 -49.190488709027257 0 15.439197409485367 15.952251718668544 0 1.814326003119511 -2.07343950760502 0 19.518673291696139 6.866355308530427 0 19.641484765013352 18.742450782717071 0 -21.719617383640305 -15.7666228475045 0 -45.507760354083537 4.054485047172681 0 6.127422416378559 23.267389034943054 0 -6.126734821509426 23.798492466062509 0 -32.911567764225893 -12.070673321126415 0 48.014233079857085 -41.293801639768169 0 -11.690777034527379 -17.673015656672291 0 -23.969835188391194 4.96001468693567 0 67.944113405769343 -2.997603970714956 0 2.800630144314566 20.048259842245635 0 8.030823060823703 22.001403304603393 0 -10.819367944147945 -9.134480858518423 0 8.274221510859631 -14.242127356779822 0 -9.516039029027741 -5.244443289815465 0 -20.025625935155613 -11.450448590766607 0 16.623085585041714 6.531642222126784 0 -18.03123820766039 9.351514532800994 0 -31.643346157549129 -31.113866126699147 0 -0.018068708259422 -24.592341836682628 0 5.919650356930962 23.463313585738273 0 2.19908983488029 11.114197884839641 0 3.814879657069043 -23.906531912616636 0 5.242076638022259 -0.989544675380334 0 -23.056101791278429 4.177535392931504 0 -34.774210686208882 -1.611295030181489 0 -0.903177754212992 11.577898013499953 0 -6.622023901282548 -5.31652081095658 0 -30.463294890955677 21.786762466229003 0 -17.924601006879861 7.262928665515322 0 10.109911455631959 25.190658076465343 0 -34.151755422994285 -3.192024576167502 0 -9.821136197742639 -26.330550786549875 0 -4.683497965350367 -22.809996667281251 0 12.319489378610568 -2.469117879017871 0 -12.937093202444309 -4.061491156529758 0 -8.289783231462712 -12.249258704802365 0 30.640791801875885 -4.836323099349567 0 -42.568877208132299 -13.494046874952687 0 12.940225073873458 -24.298357151856948 0 5.619178667996822 12.794558962596847 0 -8.545589248552965 12.341239663838968 0 -68.573362127764398 14.211811322518006 0 7.991040060636887 25.276940334629654 0 33.40691731493866 -4.929883715761126 0 9.842655304298615 2.894540283211766 0 -4.918302613811453 26.322209273730998 0 21.838951384722623 23.367339586501107 0 15.926807272726309 -9.552547619726017 0 61.633922118846158 23.771475152646673 0 -18.572789563309243 -4.026393095090049 0 4.25921130664261 20.906454912831247 0 -9.063136324219727 34.72628387621041 0 14.202020536966698 8.293684300621999 0 19.247737164137664 13.219394120175071 0 21.023391195271095 1.360822925574876 0 -1.289951853001355 -15.292278581165997 0 38.29207081912152 -1.983810004459008 0 23.627267270688613 25.652118243575163 0 2.83978818125878 -23.31397623204327 0 -0.537368532214474 5.296161716660442 0 -30.200806241012135 -5.730472092618681 0 -41.355982859971043 3.290086314990552 0 20.872410903255307 -3.297665127025833 0 -3.044374859427126 28.752956929502574 0 -11.829157705505194 -25.307317233175937 0 31.820486195507844 28.372858405798524 0 18.672435601415906 15.529053053710784 0 -36.368523419552503 -16.548097862797427 0 24.138078294273296 23.882504381459718 0 -9.149347367660553 10.443244800663322 0 11.14967816948697 17.542490716285855 0 27.199151711974025 13.349163786518016 0 -13.501106163531514 -13.515514587528573 0 -15.193279905827366 -4.031944630125874 0 -14.668579258627791 -30.734471622086485 0 20.463873407368251 -22.997882857156782 0 13.98279080560757 14.336286510619834 0 -12.247270716285154 -34.407912899072663 0 -11.610219550265095 14.503425394350618 0 -21.22581784755997 -5.946947701885475 0 7.749092031001846 -24.788447662453812 0 6.613254024185799 -6.893492123587546 0 -4.761988475053216 -7.120842599283923 0 -25.81231916146459 12.39309147597748 0 13.532889069782854 20.351727120765037 0 17.022707774951417 21.940832852514248 0 29.96224343382432 23.583318794046146 0 -12.570990943389868 2.783574459733509 0 -22.525157571006254 -14.953011959925655 0 7.384839918663899 -14.137538022731537 0 33.086408829425459 3.291781350609258 0 27.29452471232301 44.547498075188315 0 -21.301971311170803 25.385915181062376 0 -3.880535410175955 -3.67786914834003 0 -0.968114626593958 23.764492755742346 0 27.492423491580254 4.987948993048115 0 23.429252299390907 -18.037119955992125 0 -23.180728619280359 1.814719242216684 0 -35.235273857567663 16.405382957894776 0 14.675142154087613 -56.118207812046251 0 -28.415555490307298 -15.291236649200179 0 -44.569030796171717 -22.135730094305753 0 -10.601122463004742 -49.333140233098618 0 -4.277186913951565 -8.17304154659036 0 -14.887526220444224 -28.124865259121652 0 24.440655939882777 25.074175446832697 0 2.236088034693624 36.680165076254568 0 1.542817733116661 3.108118485136946 0 -1.299828745647249 14.557199090915084 0 -40.732141883781196 -9.031616794885393 0 4.661835055660651 43.872778026730153 0 -31.568051827552868 33.971053558190349 0 26.925579005708517 -24.722764352339453 0 55.97498730026274 30.607918791077882 0 -27.809633896584327 17.610105662982928 0 1.90083221118529 17.215364708761872 0 -9.784835988994518 13.2893132366112 0 38.919554183023187 -8.875866237239315 0 -17.015889031225061 10.380032697286312 0 36.318360372893792 -11.072648772674903 0 10.316409450913623 31.505814140720876 0 -17.178205709378886 19.778406924446308 0 -0.177990368978795 -17.352533331251735 0 16.783049447039449 14.629488485752244 0 -0.357930962108053 -2.779354666333225 0 53.77516702137067 11.719696485199533 0 -15.392037424478509 1.564351543476864 0 -10.583988026317483 -27.276084515026032 0 -28.849097566719546 32.039025434215752 0 20.174595205396258 26.550485742534022 0 6.474930497625303 -36.796857746898652 0 23.852152378044416 -9.670524289464542 0 23.140863314612034 -23.604600116614534 0 2.423699688916281 31.901186612742233 0 21.864760714197704 -19.83370133711496 0 -13.490979833069607 -0.66631784278248 0 -57.882105697904755 27.008096857344629 0 -3.70038527080842 -24.181868889192934 0 -10.818300236291506 16.864027600236909 0 35.943631336251457 14.289454502419131 0 25.504555511197076 -23.767396750871558 0 -49.093093194975609 -4.148890131958655 0 10.491750885168827 32.913193950305576 0 40.872590986780914 8.265759412091956 0 -32.67926186193764 25.084115016464921 0 5.753828435691959 -20.000827512148462 0 1.440638454245102 12.373522562965999 0 -9.00814485559196 21.28721344134139 0 -32.197763293987229 -9.804773391339381 0 -16.337081486202965 16.669914892551859 0 38.572703098992022 -9.531265258023685 0 -25.25935123348409 17.685566780588033 0 -6.523276307908308 -4.941216115771264 0 -20.667102325340441 2.513001830581219 0 40.92915087690767 -28.049069721710612 0 -11.290332086593228 5.068275343619 0 -8.338414030960131 22.483205296771374 0 -0.698246949959798 32.68837721554214 0 -13.587278492890047 26.054375353939093 0 -0.00621872158675 34.700251742663042 0 23.791491111869252 25.142597357439616 0 -14.613084550937327 -15.096045272878664 0 16.620041156041221 40.519163133465511 0 28.745736727850524 -31.685089275671338 0 -15.434234302061958 -14.935631056345336 0 9.611907788059266 -20.985819139447543 0 10.209361535491295 -14.230219205254723 0 -7.811023316800061 2.797177431369331 0 -6.399633533711924 48.967786977713494 0 13.811634219410614 32.758440649722679 0 -0.107337290378523 -14.015578846524376 0 -57.21183216187206 18.795237999990764 0 -0.984913736630227 8.215069052129483 0 -7.924336160078683 -41.992375985467866 0 -7.529665077234762 33.877693309041817 0 -9.804638416302193 -10.934708096805561 0 -3.437360788954987 11.856699824591139 0 1.988113568374219 -25.65864452745274 0 0.9036666613177 -20.148921058830869 0 21.680717156341505 -8.342701789196949 0 -16.546420329507963 -37.561205303016195 0 34.784966106247289 12.506152688650269 0 10.76210072327558 7.473473541285342 0 17.695351806407412 10.503257868480922 0 -3.363845144597666 13.197118677549209 0 25.998001418062 -33.953252500584355 0 40.016257329663695 -45.509417408028746 0 -11.301447668063945 -29.838911269343217 0 -16.569427297417121 -3.116700223100376 0 -5.017536102047499 -38.19161173005223 0 -5.631450778105949 -4.043120707524905 0 29.287797178484773 2.660864018833406 0 8.229944132267466 17.727480854092565 0 -20.499740436844981 16.92496232148228 0 -29.795895434191483 -14.773129756119774 0 -17.177337215884911 -1.649588508630211 0 -13.308073300600721 14.713921234461051 0 -0.057638366170463 -3.307538599769928 0 -25.41171771185758 17.893838806849374 0 -6.410237542786215 -26.835413817948897 0 -24.064656491478267 7.757109298165954 0 -11.024093702309077 -3.854378967998099 0 -38.933166550122088 1.81189110341518 0 7.6023003489008 7.800664552168368 0 25.023478218930862 -18.848651591627988 0 24.611416943862253 10.735017566692962 0 -12.026804487469233 9.264720880858086 0 -15.027180665396605 0.661861004841521 0 21.527081624149378 22.25693160412931 0 -0.80676287211489 -35.795338850617988 0 30.535936092742485 -17.55532339202701 0 -14.537846644366271 -12.985597217063409 0 -52.474178004207936 -25.046123338168037 0 -1.243526155000949 -10.439303612539645 0 0.533668781263808 -10.514575494215711 0 30.770531902708388 11.131554531415784 0 20.624185594429598 -10.885396800898693 0 -32.30846070750345 4.404910953157974 0 -29.122383066117226 -40.471088052893712 0 -9.335554309187096 -17.423358925098743 0 -1.161976825579155 15.72030021100665 0 11.884435824513249 19.648687031539648 0 27.540617435154218 48.276240111797911 0 6.913090767132738 -7.413337495560739 0 -6.907739602595591 -2.353930436204445 0 0.346805964771806 -8.82279720149948 0 4.010536669511128 23.278760112461768 0 4.105309271617831 42.374825579640437 0 22.108342075735806 18.499550329346672 0 27.20675722648868 -24.523688603915755 0 -37.33060897098931 26.784091692468884 0 16.097386737744898 22.095585754869962 0 4.368313226068328 -8.640244129918656 0 3.208424171737367 15.201028408115704 0 15.284068924593228 -2.473990235156512 0 0.480737606514647 26.676312126638983 0 15.529229179913774 3.764833487383514 0 37.060083307588862 3.201521720705062 0 -0.703699008489386 -25.945657277116169 0 7.893115417145911 1.232755913789432 0 -36.412142230561862 5.046706761460602 0 25.774454232217821 21.684347964217434 0 -18.89663814935632 2.287695924452127 0 21.842188322207473 33.129944394881001 0 -3.937106858367478 57.814973381057698 0 43.158955838871996 -28.494950555133101 0 -24.957845413986039 0.162772558861977 0 -13.635378603610999 0.670952043428294 0 -0.864218514007152 -2.240272767836057 0 -5.797766066612546 -8.936264240480757 0 -44.389519097552174 19.658669570022667 0 30.241176969610109 34.580280283254602 0 52.958847479527698 -53.645005203263807 0 21.128325462786464 27.724324409994182 0 -53.333914553611038 -7.585440027421186 0 -3.689787565248275 38.40878756182957 0 5.609848722281167 -36.63819733591378 0 15.246263937648866 -31.766672179165951 0 38.768355894487414 5.81223266955692 0 -32.010196679731528 36.069653912862201 0 11.282280710101926 19.965786239445432 0 3.289810427492125 -32.370095906792635 0 -26.117799518163363 15.919462448918555 0 -9.007306413458618 14.384858877306275 0 0.399456279740107 -22.084476996955352 0 -14.409475948586076 34.929917122576427 0 -3.18598073161069 -19.678166719857206 0 4.584773471661163 -6.89218344370199 0 -15.43149351315563 -40.834696948181836 0 -16.713138645122996 21.216844644133303 0 -25.023092642485043 -26.224155253797189 0 -13.266833294413406 2.184786393500656 0 -1.478415287307156 -29.893734279696591 0 23.355809438342632 -0.522657857713357 0 -10.594175775981288 24.360251137240454 0 -5.982596124019855 -6.02906922203463 0 -12.691651550653177 -47.502991077087984 0 20.217837685103795 -3.997491173129641 0 -21.385594874179038 36.871218252629141 0 -3.373444807424242 -7.741512454205268 0 10.572238124685464 -12.888228820398062 0 1.463589137869837 -9.467340388430429 0 29.250746532302369 2.142644390680898 0 14.300408891601634 -8.810745397080492 0 21.253194089510917 4.99627598539038 0 -8.943522519889807 25.169095342353987 0 0.861521442127586 14.762565094452274 0 -35.884641793169493 35.84002363139868 0 6.98888631758247 10.681555641982349 0 -11.479617764963931 -22.010665645145966 0 20.128338140931827 18.124282954513461 0 7.623300175535755 13.752976564083649 0 -5.092165747090339 -14.852278009516471 0 -24.215450277887388 -5.943913931721665 0 -13.675456363110564 5.919656519114043 0 5.463382480491878 27.315941399908962 0 9.218601125374843 6.565778025467043 0 5.644945871393535 16.555233672208892 0 21.913648466262096 -0.783472944256142 0 -18.108644047933829 -5.733833808971717 0 -19.919176140394406 31.831524795941281 0 -24.051619903723015 -1.507649471821599 0 16.401134486498631 -20.599366855645933 0 -1.434685573674531 6.261745647781954 0 21.690472490688858 30.522561371504295 0 15.161349681162164 -5.10459428273675 0 8.748171645498738 7.166759268658308 0 -2.607896382485699 -15.637435644380913 0 -6.517575211986572 -76.754168267168765 0 -63.309591257537981 -0.440356645662483 0 1.965477408837079 3.533595107682426 0 -9.315519235893898 -16.489394524940831 0 7.967149744500054 -1.548361464704277 0 10.023717921079673 -9.075254019636223 0 -6.650571386653316 -5.451088944361022 0 -38.267834468198473 18.001391177176831 0 -29.765215508890456 42.692798620251544 0 -20.83043771740217 -40.901134925286357 0 -34.324655951203752 29.205712507420177 0 -4.728248396693612 -23.545802445517289 0 33.763682030903652 -16.579585440118326 0 7.176854696029007 6.565539592531659 0 25.608593819121573 -10.976454559146855 0 -5.660111753576871 -0.233395561088311 0 27.259802867341175 28.717748198951107 0 11.592425782184657 23.924006682386395 0 -26.858793696808863 -31.171647639397367 0 -22.138869202069873 -33.197072869830976 0 9.167940259281615 -16.816887084036011 0 -25.71626342827917 20.582462823325155 0 17.420339198060155 -9.10927190798475 0 -21.908687638729635 6.295075354373028 0 -49.318980363683053 6.906814116102023 0 -17.298308896856163 -26.231034720234966 0 -10.793676319652901 17.23103660382526 0 -18.597058723825871 6.665238106078141 0 -12.974735743040833 -1.206161689392845 0 -7.845592694767196 -21.917564407909797 0 24.532719626129239 15.914340206170962 0 10.437801149496131 -36.214458003201536 0 -17.03506816527565 -36.190267633940387 0 2.505725255072099 37.637530033454951 0 12.255664961623216 -9.606371678133106 0 -12.805369638892195 -46.343060218303044 0 -28.559259004793564 6.352286415778202 0 25.107405253820168 -5.865357292741581 0 16.995774106534082 -10.359009048333904 0 -22.749996000393221 -10.16702424896773 0 14.142055422662773 2.913020386409106 0 -45.663488408885222 -12.880832992563787 0 3.211115575232688 11.164696775869777 0 -2.486345395831598 -11.863009418749732 0 -25.457038354632683 44.279735113133007 0 8.319403565900279 12.20118769439825 0 10.041931753600263 20.25162292027834 0 19.267392041102973 37.592185571160279 0 10.632360377938557 0.524486930714033 0 -20.271410742913105 20.142240991881248 0 6.463280674792617 24.084559097965954 0 20.507112166155924 9.796581302076286 0 27.636376568564408 17.152398013819266 0 -43.911503593684344 10.177818826379985 0 24.185124885963873 -26.015627259527552 0 22.176807539297858 -3.461765822023629 0 8.494539696796952 -4.538886593206602 0 -6.096610495649628 24.415844052324719 0 5.034796167554462 -1.818610713160355 0 38.080457928749382 52.29734067438369 0 15.711186435749521 -24.765852668851572 0 12.920220359614545 2.830997804841874 0 -11.000077565143968 -7.442671868844537 0 4.20619447823019 -3.304500104488681 0 -6.54491790427842 6.524627333292686 0 28.353599386698825 34.123010866526158 0 19.462544217421488 9.863955778477949 0 -5.907822143208032 20.226718917429363 0 6.967752384524282 -16.004733808731618 0 44.680066991684392 -15.773089911276056 0 1.520496758897173 -9.565860214358187 0 -8.211650472527014 19.620911254207932 0 -24.418210835285244 30.517456636825404 0 2.391174802672729 -13.767005737833879 0 19.963478716286968 -18.006757925028332 0 -4.704053399785815 -26.529023063490673 0 -10.557150424295317 57.242915887012508 0 19.261862016963128 -3.188074921446506 0 13.22963658413307 -20.823053639184081 0 -2.948634271392948 -36.706367318776088 0 12.925977328063571 -0.657283891508769 0 9.965676951679884 -7.885080986065861 0 39.476924352313191 20.496083217252309 0 27.33223488078173 0.156077647663324 0 44.864929396517859 1.455991731259022 0 1.488530364866415 -21.471972250480153 0 14.074547018049431 5.898067960561978 0 -30.888427313896816 -15.733850918062993 0 -7.783940429567017 23.75191452107244 0 -7.124291227046422 -10.438546410401836 0 27.215608688932583 17.651525844335914 0 -7.895728527285748 9.21471688476835 0 -23.448075133130001 -10.448158190486559 0 19.129923431965032 14.994581609075826 0 37.285694244094422 18.146928223363616 0 -8.933691028098929 -20.580059684186544 0 -10.984380928519613 -17.481795300094163 0 -23.187827496934624 14.38010310192289 0 -4.750804966182984 19.281110774372191 0 19.011154678827371 -37.885182993515322 0 -11.640078673615635 37.027248269818287 0 10.811319602216612 9.4432470458627 0 15.580108949907666 -9.720296973165373 0 -11.061178870627772 -15.512229742662056 0 1.283159181035881 -16.332828357334229 0 -8.287873427705225 30.233360241058527 0 -29.535776316461245 -6.813056206060615 0 -10.586354138342434 -6.280308309904262 0 -1.858708991137152 30.315005837063076 0 -14.421765030263366 -17.015488500272216 0 -30.51882809513603 -16.747176640191359 0 28.201534077313106 12.448736659557124 0 20.588344413642695 -38.994554719655923 0 -6.100355078128742 4.602464721128411 0 6.636503807843351 -10.316522019123525 0 15.707810217898249 6.149627461204886 0 -32.184996722457278 -24.557466044806148 0 -22.972031245735224 -13.600854352752309 0 27.420718482327629 -10.234533371848695 0 10.976214443523514 15.823639672056192 0 -3.514088987995242 9.921574043364089 0 -26.974186876346934 -28.957191769933551 0 -16.469718046208591 2.82352077645784 0 9.190643478252152 11.44539750046664 0 -0.592269396394311 28.031433270948341 0 40.812346484367268 -18.478295148840377 0 -27.017471133565717 -27.595096256244606 0 -4.560591837426729 8.749741655792109 0 14.73205758727314 28.562008470682141 0 -11.560871515640425 9.331396930096872 0 -29.556541542707286 13.352589268388048 0 17.396307341489461 -9.09508278636644 0 5.787597142022159 -19.964247235353486 0 -6.826994193777955 -19.815885214922041 0 -7.746159483456885 -12.164509048306433 0 -15.957017431697674 13.45175654309193 0 -15.952214349935719 -1.527600561383899 0 -20.879420855444796 12.69723900474745 0 4.512265440254933 -4.910479238419771 0 14.060045265394887 -12.722222722262293 0 -33.310924938257983 32.784966798648973 0 3.249797610841251 -9.3443163905844 0 -1.671882025009524 -9.057013012769335 0 17.302179473656512 8.062912781487066 0 13.234337937637163 -10.361375161320275 0 33.418311691228325 13.819062540946112 0 -14.895493352111357 -14.615124942391558 0 -2.970844311506262 14.256136535554671 0 -8.874047160830544 0.250849255401269 0 -7.07390149679084 20.592483031340358 0 26.618892440106595 9.915610321948174 0 -31.267038267510692 23.052061289326851 0 28.169035587780218 26.432964946206702 0 41.487655640390841 17.584580350934853 0 -6.104555623056855 -18.815143118725771 0 -3.233777820768676 -23.019714539001953 0 47.884203252106751 23.774820651317292 0 -0.892342762340682 21.03696633471295 0 -14.078379561711035 -4.623430476933718 0 -12.456271168147543 -6.265375061970549 0 11.49743387862979 10.93196665609733 0 25.183166772623419 -3.800473884014798 0 21.034589580833082 28.707203629655332 0 27.899740416470394 -2.808950130276517 0 -26.285351164028938 -8.446320627026267 0 15.868054718125302 -1.208243532017884 0 -48.768911810234847 7.059444376105677 0 -4.324870067320637 6.342769186460393 0 -8.685323889247515 39.564768170420805 0 -33.065646031237399 -13.574567924239235 0 -12.571489650008708 -19.706926026594633 0 17.203557398681703 -12.36650819479366 0 33.214854116372059 -13.937109544071978 0 18.678461544726645 14.565003958241709 0 22.655333401085933 39.083848586528113 0 25.479898885321013 -30.618732967064449 0 -67.550474616939411 -18.703944582734355 0 6.701893757210141 -41.055877494247774 0 -30.246033034955047 -33.913507540736404 0 -5.248664143210862 32.320387433589879 0 26.521642447790629 -16.48898260708475 0 11.973601708365457 -12.151836044266744 0 47.173072649792559 20.054365015740363 0 -13.384311112235816 -16.08351521506075 0 55.992245595399922 10.187205124861263 0 29.90430518104295 13.0409674163011 0 3.689676503155285 -23.799303106545665 0 -20.294803881786457 1.228281892493698 0 -32.022615224273899 9.